 Gaussian 09, Revision D.01,
 Gaussian 09:  ES64L-G09RevD.01 24-Apr-2013

 ----------------------------------------------------------
 #p freq=(HPModes) B3LYP/6-31G(d) scrf=(CPCM,solvent=water)
 ----------------------------------------------------------

 ------------------
 snapshot No. 00000
 ------------------
 Symbolic Z-matrix:
 Charge =  0 Multiplicity = 1

                         Standard orientation:
 ---------------------------------------------------------------------
 Center     Atomic      Atomic             Coordinates (Angstroms)
 Number     Number       Type             X           Y           Z
 ---------------------------------------------------------------------
      1          1           0        1.125820   -0.969527   -2.194131
      2          6           0        0.294646   -1.030244   -1.491303
      3          1           0        0.420777   -1.794464   -0.724144
      4          1           0       -0.637469   -1.292210   -1.990817
      5          6           0       -0.002669    0.332146   -0.887280
      6          8           0       -1.058390    0.443090   -0.266520
      7          7           0        1.141928    0.956169   -0.502173
      8          1           0        1.960382    0.395088   -0.690866
      9          6           0        1.149640    2.320892    0.016648
     10          1           0        2.117912    2.822154    0.027476
     11          1           0        0.434938    3.007642   -0.436974
     12          1           0        0.881841    2.137627    1.057186
     13          8           0       -2.775488    1.568575    1.893313
     14          1           0       -2.216914    1.731941    1.079656
     15          1           0       -3.591157    1.049378    1.638230
     16          8           0       -3.822287   -0.494093   -1.288912
     17          1           0       -3.939058   -0.269011   -2.255845
     18          1           0       -3.014882   -0.024078   -0.931219
     19          8           0       -1.357709   -2.387416    1.094939
     20          1           0       -1.608864   -1.423796    1.190229
     21          1           0       -2.169064   -2.919883    0.850547
     22          8           0        3.607387   -0.141165   -0.836793
     23          1           0        4.080598    0.607674   -1.302164
     24          1           0        3.499612   -0.910341   -1.466680
     25          8           0        2.903774   -1.130605    1.985355
     26          1           0        2.973217   -1.281923    0.999326
     27          1           0        3.060824   -0.163302    2.185962
 ---------------------------------------------------------------------

 SCF Done:  E(RB3LYP) =  -630.592843341     A.U. after   12 cycles

 The electronic state is 1-A.
 Alpha  occ. eigenvalues --  -19.18037 -19.13851 -19.13449 -19.13151 -19.12898
 Alpha  occ. eigenvalues --  -19.12578 -14.34361 -10.28693 -10.21354 -10.17806
 Alpha  occ. eigenvalues --   -1.04067  -1.02067  -0.97719  -0.97417  -0.97150
 Alpha  occ. eigenvalues --   -0.96959  -0.91263  -0.74623  -0.68241  -0.57172
 Alpha  occ. eigenvalues --   -0.54929  -0.51120  -0.50882  -0.50784  -0.50460
 Alpha  occ. eigenvalues --   -0.50177  -0.46871  -0.45699  -0.42327  -0.41718
 Alpha  occ. eigenvalues --   -0.40936  -0.39014  -0.38262  -0.36472  -0.35505
 Alpha  occ. eigenvalues --   -0.35469  -0.35361  -0.34798  -0.32623  -0.28938
 Alpha  occ. eigenvalues --   -0.28655  -0.28401  -0.28274  -0.25803  -0.24330
 Alpha virt. eigenvalues --   -0.00979   0.02800   0.04739   0.08529   0.08849
 Alpha virt. eigenvalues --    0.09629   0.11779   0.12618   0.14621   0.15587
 Alpha virt. eigenvalues --    0.16271   0.17054   0.17126   0.17942   0.18370

 Mulliken charges:
               1
     1  H    0.148812
     2  C   -0.554027
     3  H    0.207433
     4  H    0.167224
     5  C    0.533043
     6  O   -0.521743
     7  N   -0.592499
     8  H    0.408010
     9  C   -0.325446
    10  H    0.179782
    11  H    0.182203
    12  H    0.167940
    13  O   -0.849853
    14  H    0.414819
    15  H    0.405465
    16  O   -0.862239
    17  H    0.403989
    18  H    0.411253
    19  O   -0.825092
    20  H    0.411736
    21  H    0.409542
    22  O   -0.789615
    23  H    0.444611
    24  H    0.441020
    25  O   -0.844284
    26  H    0.419057
    27  H    0.408859
 Sum of Mulliken charges =   0.00000

 Dipole moment (field-independent basis, Debye):
    X=              6.6488    Y=              3.1887    Z=             -8.6950  Tot=             11.4008
 Quadrupole moment (field-independent basis, Debye-Ang):
   XX=            -51.5780   YY=            -63.6849   ZZ=            -65.4095
   XY=             10.5803   XZ=             -8.9985   YZ=              2.6999

  Exact polarizability:  99.544  14.012  89.328  -2.602   9.365  76.513
 Approx polarizability: 109.066  14.558  92.726  -3.321   7.310  83.978

 ******    7 imaginary frequencies (negative Signs) ******

                      1                      2                      3
                      A                      A                      A
 Frequencies --   -339.8772               -99.6358               -81.7305
 Red. masses --      1.0845                 2.9621                 4.1366
 Frc consts  --      0.0738                 0.0173                 0.0163
 IR Inten    --      2.5318                19.3691                 5.3685

                      4                      5                      6
                      A                      A                      A
 Frequencies --    -71.2445               -36.5664               -26.1725
 Red. masses --      3.5362                 5.7683                 4.4069
 Frc consts  --      0.0106                 0.0045                 0.0018
 IR Inten    --      2.3689                 0.3136                 5.1060

                      7                      8                      9
                      A                      A                      A
 Frequencies --    -19.6343                16.5265                43.9061
 Red. masses --      5.8695                 5.8292                 5.4729
 Frc consts  --      0.0013                 0.0009                 0.0062
 IR Inten    --      1.1450                 0.9866                 1.8307

                     10                     11                     12
                      A                      A                      A
 Frequencies --     46.6554                56.5473                59.0568
 Red. masses --      5.7573                 4.9287                 5.4842
 Frc consts  --      0.0074                 0.0093                 0.0113
 IR Inten    --      0.9103                 8.8355                 3.0714

                     13                     14                     15
                      A                      A                      A
 Frequencies --     72.8385                84.7750                88.1084
 Red. masses --      3.0500                 5.1098                 3.0171
 Frc consts  --      0.0095                 0.0216                 0.0138
 IR Inten    --      3.3766                 4.6369                 6.4650

                     16                     17                     18
                      A                      A                      A
 Frequencies --    112.4510               129.2126               236.5886
 Red. masses --      2.2673                 5.5427                 3.0458
 Frc consts  --      0.0169                 0.0545                 0.1004
 IR Inten    --      2.9021                 3.6516                11.3978

                     19                     20                     21
                      A                      A                      A
 Frequencies --    302.2572               398.1487               438.4179
 Red. masses --      4.5116                 1.1419                 2.5857
 Frc consts  --      0.2428                 0.1067                 0.2928
 IR Inten    --      4.4447                54.5860                30.3236

                     22                     23                     24
                      A                      A                      A
 Frequencies --    462.7184               484.1571               496.6115
 Red. masses --      1.2107                 1.1304                 1.1128
 Frc consts  --      0.1527                 0.1561                 0.1617
 IR Inten    --    407.7564               658.6388               444.0576

                     25                     26                     27
                      A                      A                      A
 Frequencies --    510.8695               586.8200               614.4334
 Red. masses --      1.1100                 2.5270                 1.0402
 Frc consts  --      0.1707                 0.5127                 0.2314
 IR Inten    --    301.5207                73.7521               133.3644

                     28                     29                     30
                      A                      A                      A
 Frequencies --    631.6883               659.6444               668.6566
 Red. masses --      2.4423                 1.2964                 1.0434
 Frc consts  --      0.5742                 0.3323                 0.2749
 IR Inten    --     82.0100               112.4370               144.3394

                     31                     32                     33
                      A                      A                      A
 Frequencies --    674.2768               677.5222               688.0900
 Red. masses --      1.0406                 1.0842                 1.0443
 Frc consts  --      0.2788                 0.2932                 0.2913
 IR Inten    --     70.6243               136.8730                74.6199

                     34                     35                     36
                      A                      A                      A
 Frequencies --    712.4950               726.4328               746.7673
 Red. masses --      1.0126                 1.0161                 1.0131
 Frc consts  --      0.3029                 0.3159                 0.3329
 IR Inten    --     18.7498                50.3458                 5.0816

                     37                     38                     39
                      A                      A                      A
 Frequencies --    756.6732               784.6038               876.7536
 Red. masses --      1.0115                 1.0395                 2.2278
 Frc consts  --      0.3412                 0.3770                 1.0090
 IR Inten    --     38.9607                17.4778                 3.1271

                     40                     41                     42
                      A                      A                      A
 Frequencies --   1007.9905              1062.9316              1100.3466
 Red. masses --      2.0302                 1.7620                 1.8530
 Frc consts  --      1.2154                 1.1729                 1.3218
 IR Inten    --     10.7600                12.8085                 2.5006

                     43                     44                     45
                      A                      A                      A
 Frequencies --   1154.5231              1201.4500              1327.8908
 Red. masses --      1.6417                 1.8615                 2.4770
 Frc consts  --      1.2893                 1.5832                 2.5733
 IR Inten    --     25.8680                 4.8796               142.1202

                     46                     47                     48
                      A                      A                      A
 Frequencies --   1400.4420              1465.8717              1470.6271
 Red. masses --      1.2616                 1.1801                 1.0585
 Frc consts  --      1.4579                 1.4940                 1.3488
 IR Inten    --     39.4304                72.6626                27.3153

                     49                     50                     51
                      A                      A                      A
 Frequencies --   1503.7285              1508.2228              1517.9935
 Red. masses --      1.0431                 1.0560                 1.0543
 Frc consts  --      1.3896                 1.4153                 1.4313
 IR Inten    --      0.2598                32.6668                 7.0722

                     52                     53                     54
                      A                      A                      A
 Frequencies --   1584.8449              1671.3362              1693.9935
 Red. masses --      1.5853                 1.0898                 1.0837
 Frc consts  --      2.3460                 1.7935                 1.8322
 IR Inten    --    334.7687                63.0696               123.1607

                     55                     56                     57
                      A                      A                      A
 Frequencies --   1696.9360              1699.3969              1713.0610
 Red. masses --      1.0914                 1.0858                 1.0899
 Frc consts  --      1.8516                 1.8476                 1.8844
 IR Inten    --    221.0026               208.7217                87.4606

                     58                     59                     60
                      A                      A                      A
 Frequencies --   1765.1830              3090.6898              3093.8490
 Red. masses --      5.9622                 1.0374                 1.0326
 Frc consts  --     10.9454                 5.8386                 5.8236
 IR Inten    --    518.3626                53.5047                19.1351

                     61                     62                     63
                      A                      A                      A
 Frequencies --   3158.1969              3175.3697              3183.0338
 Red. masses --      1.0976                 1.0994                 1.1077
 Frc consts  --      6.4502                 6.5312                 6.6122
 IR Inten    --     37.3960                18.3204                20.5428

                     64                     65                     66
                      A                      A                      A
 Frequencies --   3200.0788              3298.0609              3312.5654
 Red. masses --      1.1089                 1.0444                 1.0426
 Frc consts  --      6.6906                 6.6933                 6.7406
 IR Inten    --     20.4351               209.8936                63.2385

                     67                     68                     69
                      A                      A                      A
 Frequencies --   3314.4959              3325.2233              3338.0053
 Red. masses --      1.0424                 1.0418                 1.0427
 Frc consts  --      6.7472                 6.7870                 6.8452
 IR Inten    --     31.3097                32.5880                53.4088

                     70                     71                     72
                      A                      A                      A
 Frequencies --   3442.6759              3453.1184              3456.0809
 Red. masses --      1.0848                 1.0855                 1.0855
 Frc consts  --      7.5755                 7.6262                 7.6390
 IR Inten    --    189.8495               182.4865               124.4921

                     73                     74                     75
                      A                      A                      A
 Frequencies --   3469.4408              3471.1612              3555.9390
 Red. masses --      1.0853                 1.0843                 1.0802
 Frc consts  --      7.6971                 7.6976                 8.0473
 IR Inten    --    146.7370                58.7966               877.0418

 - Thermochemistry -
 -------------------
 Temperature   298.150 Kelvin.  Pressure   1.00000 Atm.
 Atom     1 has atomic number  1 and mass   1.00783

 Molecular mass:   163.10559 amu.
 Principal axes and moments of inertia in atomic units:
                           1         2         3
     Eigenvalues --  1950.743384076.640914239.82795
           X            0.99994   0.01067  -0.00382
           Y           -0.01011   0.99229   0.12356
           Z            0.00511  -0.12351   0.99233
 This molecule is an asymmetric top.
 Rotational symmetry number  1.
 Warning -- assumption of classical behavior for rotation
           may cause significant error
 Rotational temperatures (Kelvin)      0.04440     0.02125     0.02043
 Rotational constants (GHZ):           0.92516     0.44270     0.42566
    7 imaginary frequencies ignored.
 Zero-point vibrational energy     584552.0 (Joules/Mol)
                                  139.71127 (Kcal/Mol)
 Warning -- explicit consideration of  20 degrees of freedom as
           vibrations may cause significant error
 Vibrational temperatures:     23.78    63.17    67.13    81.36    84.97
          (Kelvin)            104.80   121.97   126.77   161.79   185.91
                              340.40   434.88   572.85   630.78   665.75
                              696.59   714.51   735.03   844.30   884.03
                              908.86   949.08   962.05   970.13   974.80
                              990.01  1025.12  1045.17  1074.43  1088.68
                             1128.87  1261.45  1450.27  1529.32  1583.15
                             1661.10  1728.62  1910.54  2014.92  2109.06
                             2115.90  2163.53  2169.99  2184.05  2280.24
                             2404.68  2437.28  2441.51  2445.05  2464.71
                             2539.70  4446.81  4451.35  4543.94  4568.64
                             4579.67  4604.19  4745.17  4766.04  4768.81
                             4784.25  4802.64  4953.24  4968.26  4972.52
                             4991.75  4994.22  5116.20

 Zero-point correction=                           0.222644 (Hartree/Particle)
 Thermal correction to Energy=                    0.237657
 Thermal correction to Enthalpy=                  0.238602
 Thermal correction to Gibbs Free Energy=         0.177030
 Sum of electronic and zero-point Energies=           -630.370199
 Sum of electronic and thermal Energies=              -630.355186
 Sum of electronic and thermal Enthalpies=            -630.354242
 Sum of electronic and thermal Free Energies=         -630.415813

                     E (Thermal)             CV                S
                      KCal/Mol        Cal/Mol-Kelvin    Cal/Mol-Kelvin
 Total                  149.132             51.009            129.589
 Electronic               0.000              0.000              0.000
 Translational            0.889              2.981             41.176
 Rotational               0.889              2.981             31.889
 Vibrational            147.355             45.047             56.523
 Vibration     1          0.593              1.986              7.013
 Vibration     2          0.595              1.980              5.075
 Vibration     3          0.595              1.979              4.954
 Vibration     4          0.596              1.975              4.574
 Vibration     5          0.596              1.974              4.488
 Vibration     6          0.599              1.967              4.075
 Vibration     7          0.601              1.960              3.777
 Vibration     8          0.601              1.958              3.702
 Vibration     9          0.607              1.939              3.226
 Vibration    10          0.612              1.924              2.958
 Vibration    11          0.655              1.785              1.828
 Vibration    12          0.694              1.669              1.404
 Vibration    13          0.764              1.474              0.969
 Vibration    14          0.799              1.386              0.832
 Vibration    15          0.820              1.333              0.758
 Vibration    16          0.840              1.285              0.699
 Vibration    17          0.852              1.258              0.667
 Vibration    18          0.866              1.226              0.632
 Vibration    19          0.944              1.060              0.473
 Vibration    20          0.974              1.001              0.425

 Normal termination of Gaussian 09 at Sun Sep 17 22:45:33 2017.
